 Variables = "x", "y", "u"
 Zone i =          121 , j =           41
  -2.82843    0.00000    0.00000
  -2.78129    0.00000    0.00000
  -2.73415    0.00000    0.00000
  -2.68701    0.00000    0.00000
  -2.63987    0.00000    0.00000
  -2.59272    0.00000    0.00000
  -2.54558    0.00000    0.00000
  -2.49844    0.00000    0.00000
  -2.45130    0.00000    0.00000
  -2.40416    0.00000    0.00000
  -2.35702    0.00000    0.00000
  -2.30988    0.00000    0.00000
  -2.26274    0.00000    0.00000
  -2.21560    0.00000    0.00000
  -2.16846    0.00000    0.00000
  -2.12132    0.00000    0.00000
  -2.07418    0.00000    0.00000
  -2.02704    0.00000    0.00000
  -1.97990    0.00000    0.00000
  -1.93276    0.00000    0.00000
  -1.88562    0.00000    0.00000
  -1.83848    0.00000    0.00000
  -1.79134    0.00000    0.00000
  -1.74420    0.00000    0.00000
  -1.69706    0.00000    0.00000
  -1.64992    0.00000    0.00000
  -1.60278    0.00000    0.00000
  -1.55563    0.00000    0.00000
  -1.50849    0.00000    0.00000
  -1.46135    0.00000    0.00000
  -1.41421    0.00000    0.00000
  -1.36707    0.00000    0.00000
  -1.31993    0.00000    0.00000
  -1.27279    0.00000    0.00000
  -1.22565    0.00000    0.00000
  -1.17851    0.00000    0.00000
  -1.13137    0.00000    0.00000
  -1.08423    0.00000    0.00000
  -1.03709    0.00000    0.00000
  -0.98995    0.00000    0.00000
  -0.94281    0.00000    0.00000
  -0.89567    0.00000    0.00000
  -0.84853    0.00000    0.00000
  -0.80139    0.00000    0.00000
  -0.75425    0.00000    0.00000
  -0.70711    0.00000    0.00000
  -0.65997    0.00000    0.00000
  -0.61283    0.00000    0.00000
  -0.56569    0.00000    0.00000
  -0.51854    0.00000    0.00000
  -0.47140    0.00000    0.00000
  -0.42426    0.00000    0.00000
  -0.37712    0.00000    0.00000
  -0.32998    0.00000    0.00000
  -0.28284    0.00000    0.00000
  -0.23570    0.00000    0.00000
  -0.18856    0.00000    0.00000
  -0.14142    0.00000    0.00000
  -0.09428    0.00000    0.00000
  -0.04714    0.00000    0.00000
   0.00000    0.00000    0.00000
   0.04714    0.00000    0.00000
   0.09428    0.00000    0.00000
   0.14142    0.00000    0.00000
   0.18856    0.00000    0.00000
   0.23570    0.00000    0.00000
   0.28284    0.00000    0.00000
   0.32998    0.00000    0.00000
   0.37712    0.00000    0.00000
   0.42426    0.00000    0.00000
   0.47140    0.00000    0.00000
   0.51854    0.00000    0.00000
   0.56569    0.00000    0.00000
   0.61283    0.00000    0.00000
   0.65997    0.00000    0.00000
   0.70711    0.00000    0.00000
   0.75425    0.00000    0.00000
   0.80139    0.00000    0.00000
   0.84853    0.00000    0.00000
   0.89567    0.00000    0.00000
   0.94281    0.00000    0.00000
   0.98995    0.00000    0.00000
   1.03709    0.00000    0.00000
   1.08423    0.00000    0.00000
   1.13137    0.00000    0.00000
   1.17851    0.00000    0.00000
   1.22565    0.00000    0.00000
   1.27279    0.00000    0.00000
   1.31993    0.00000    0.00000
   1.36707    0.00000    0.00000
   1.41421    0.00000    0.00000
   1.46135    0.00000    0.00000
   1.50849    0.00000    0.00000
   1.55563    0.00000    0.00000
   1.60278    0.00000    0.00000
   1.64992    0.00000    0.00000
   1.69706    0.00000    0.00000
   1.74420    0.00000    0.00000
   1.79134    0.00000    0.00000
   1.83848    0.00000    0.00000
   1.88562    0.00000    0.00000
   1.93276    0.00000    0.00000
   1.97990    0.00000    0.00000
   2.02704    0.00000    0.00000
   2.07418    0.00000    0.00000
   2.12132    0.00000    0.00000
   2.16846    0.00000    0.00000
   2.21560    0.00000    0.00000
   2.26274    0.00000    0.00000
   2.30988    0.00000    0.00000
   2.35702    0.00000    0.00000
   2.40416    0.00000    0.00000
   2.45130    0.00000    0.00000
   2.49844    0.00000    0.00000
   2.54558    0.00000    0.00000
   2.59272    0.00000    0.00000
   2.63987    0.00000    0.00000
   2.68701    0.00000    0.00000
   2.73415    0.00000    0.00000
   2.78129    0.00000    0.00000
   2.82843    0.00000    0.00000
  -2.82843    0.05000    0.00000
  -2.78129    0.05000    0.00000
  -2.73415    0.05000    0.00000
  -2.68701    0.05000    0.00000
  -2.63987    0.05000    0.00000
  -2.59272    0.05000    0.00000
  -2.54558    0.05000    0.00000
  -2.49844    0.05000    0.00000
  -2.45130    0.05000    0.00000
  -2.40416    0.05000    0.00000
  -2.35702    0.05000    0.00000
  -2.30988    0.05000    0.00000
  -2.26274    0.05000    0.00000
  -2.21560    0.05000    0.00000
  -2.16846    0.05000    0.00000
  -2.12132    0.05000    0.00000
  -2.07418    0.05000    0.00000
  -2.02704    0.05000    0.00000
  -1.97990    0.05000    0.00000
  -1.93276    0.05000    0.00000
  -1.88562    0.05000    0.00000
  -1.83848    0.05000    0.00000
  -1.79134    0.05000    0.00000
  -1.74420    0.05000    0.00000
  -1.69706    0.05000    0.00000
  -1.64992    0.05000    0.00000
  -1.60278    0.05000    0.00000
  -1.55563    0.05000    0.00000
  -1.50849    0.05000    0.00000
  -1.46135    0.05000    0.00000
  -1.41421    0.05000    0.00000
  -1.36707    0.05000    0.00000
  -1.31993    0.05000    0.00000
  -1.27279    0.05000    0.00000
  -1.22565    0.05000    0.00000
  -1.17851    0.05000    0.00000
  -1.13137    0.05000    0.00000
  -1.08423    0.05000    0.00000
  -1.03709    0.05000    0.00000
  -0.98995    0.05000    0.00000
  -0.94281    0.05000    0.00000
  -0.89567    0.05000    0.00000
  -0.84853    0.05000    0.00000
  -0.80139    0.05000    0.00000
  -0.75425    0.05000    0.00000
  -0.70711    0.05000    0.00000
  -0.65997    0.05000    0.00000
  -0.61283    0.05000    0.00000
  -0.56569    0.05000    0.00000
  -0.51854    0.05000    0.00000
  -0.47140    0.05000    0.00000
  -0.42426    0.05000    0.22119
  -0.37712    0.05000    0.20478
  -0.32998    0.05000    0.18823
  -0.28284    0.05000    0.17156
  -0.23570    0.05000    0.15479
  -0.18856    0.05000    0.13797
  -0.14142    0.05000    0.12120
  -0.09428    0.05000    0.10471
  -0.04714    0.05000    0.08895
   0.00000    0.05000    0.07495
   0.04714    0.05000    0.08895
   0.09428    0.05000    0.10471
   0.14142    0.05000    0.12120
   0.18856    0.05000    0.13797
   0.23570    0.05000    0.15479
   0.28284    0.05000    0.17156
   0.32998    0.05000    0.18823
   0.37712    0.05000    0.20478
   0.42426    0.05000    0.22119
   0.47140    0.05000    0.00000
   0.51854    0.05000    0.00000
   0.56569    0.05000    0.00000
   0.61283    0.05000    0.00000
   0.65997    0.05000    0.00000
   0.70711    0.05000    0.00000
   0.75425    0.05000    0.00000
   0.80139    0.05000    0.00000
   0.84853    0.05000    0.00000
   0.89567    0.05000    0.00000
   0.94281    0.05000    0.00000
   0.98995    0.05000    0.00000
   1.03709    0.05000    0.00000
   1.08423    0.05000    0.00000
   1.13137    0.05000    0.00000
   1.17851    0.05000    0.00000
   1.22565    0.05000    0.00000
   1.27279    0.05000    0.00000
   1.31993    0.05000    0.00000
   1.36707    0.05000    0.00000
   1.41421    0.05000    0.00000
   1.46135    0.05000    0.00000
   1.50849    0.05000    0.00000
   1.55563    0.05000    0.00000
   1.60278    0.05000    0.00000
   1.64992    0.05000    0.00000
   1.69706    0.05000    0.00000
   1.74420    0.05000    0.00000
   1.79134    0.05000    0.00000
   1.83848    0.05000    0.00000
   1.88562    0.05000    0.00000
   1.93276    0.05000    0.00000
   1.97990    0.05000    0.00000
   2.02704    0.05000    0.00000
   2.07418    0.05000    0.00000
   2.12132    0.05000    0.00000
   2.16846    0.05000    0.00000
   2.21560    0.05000    0.00000
   2.26274    0.05000    0.00000
   2.30988    0.05000    0.00000
   2.35702    0.05000    0.00000
   2.40416    0.05000    0.00000
   2.45130    0.05000    0.00000
   2.49844    0.05000    0.00000
   2.54558    0.05000    0.00000
   2.59272    0.05000    0.00000
   2.63987    0.05000    0.00000
   2.68701    0.05000    0.00000
   2.73415    0.05000    0.00000
   2.78129    0.05000    0.00000
   2.82843    0.05000    0.00000
  -2.82843    0.10000    0.00000
  -2.78129    0.10000    0.00000
  -2.73415    0.10000    0.00000
  -2.68701    0.10000    0.00000
  -2.63987    0.10000    0.00000
  -2.59272    0.10000    0.00000
  -2.54558    0.10000    0.00000
  -2.49844    0.10000    0.00000
  -2.45130    0.10000    0.00000
  -2.40416    0.10000    0.00000
  -2.35702    0.10000    0.00000
  -2.30988    0.10000    0.00000
  -2.26274    0.10000    0.00000
  -2.21560    0.10000    0.00000
  -2.16846    0.10000    0.00000
  -2.12132    0.10000    0.00000
  -2.07418    0.10000    0.00000
  -2.02704    0.10000    0.00000
  -1.97990    0.10000    0.00000
  -1.93276    0.10000    0.00000
  -1.88562    0.10000    0.00000
  -1.83848    0.10000    0.00000
  -1.79134    0.10000    0.00000
  -1.74420    0.10000    0.00000
  -1.69706    0.10000    0.00000
  -1.64992    0.10000    0.00000
  -1.60278    0.10000    0.00000
  -1.55563    0.10000    0.00000
  -1.50849    0.10000    0.00000
  -1.46135    0.10000    0.00000
  -1.41421    0.10000    0.00000
  -1.36707    0.10000    0.00000
  -1.31993    0.10000    0.00000
  -1.27279    0.10000    0.00000
  -1.22565    0.10000    0.00000
  -1.17851    0.10000    0.00000
  -1.13137    0.10000    0.00000
  -1.08423    0.10000    0.00000
  -1.03709    0.10000    0.00000
  -0.98995    0.10000    0.00000
  -0.94281    0.10000    0.00000
  -0.89567    0.10000    0.00000
  -0.84853    0.10000    0.00000
  -0.80139    0.10000    0.00000
  -0.75425    0.10000    0.00000
  -0.70711    0.10000    0.00000
  -0.65997    0.10000    0.00000
  -0.61283    0.10000    0.32538
  -0.56569    0.10000    0.31026
  -0.51854    0.10000    0.29513
  -0.47140    0.10000    0.27999
  -0.42426    0.10000    0.26460
  -0.37712    0.10000    0.24941
  -0.32998    0.10000    0.23434
  -0.28284    0.10000    0.21944
  -0.23570    0.10000    0.20480
  -0.18856    0.10000    0.19059
  -0.14142    0.10000    0.17711
  -0.09428    0.10000    0.16491
  -0.04714    0.10000    0.15507
   0.00000    0.10000    0.14991
   0.04714    0.10000    0.15507
   0.09428    0.10000    0.16491
   0.14142    0.10000    0.17711
   0.18856    0.10000    0.19059
   0.23570    0.10000    0.20480
   0.28284    0.10000    0.21944
   0.32998    0.10000    0.23434
   0.37712    0.10000    0.24941
   0.42426    0.10000    0.26460
   0.47140    0.10000    0.27999
   0.51854    0.10000    0.29513
   0.56569    0.10000    0.31026
   0.61283    0.10000    0.32538
   0.65997    0.10000    0.00000
   0.70711    0.10000    0.00000
   0.75425    0.10000    0.00000
   0.80139    0.10000    0.00000
   0.84853    0.10000    0.00000
   0.89567    0.10000    0.00000
   0.94281    0.10000    0.00000
   0.98995    0.10000    0.00000
   1.03709    0.10000    0.00000
   1.08423    0.10000    0.00000
   1.13137    0.10000    0.00000
   1.17851    0.10000    0.00000
   1.22565    0.10000    0.00000
   1.27279    0.10000    0.00000
   1.31993    0.10000    0.00000
   1.36707    0.10000    0.00000
   1.41421    0.10000    0.00000
   1.46135    0.10000    0.00000
   1.50849    0.10000    0.00000
   1.55563    0.10000    0.00000
   1.60278    0.10000    0.00000
   1.64992    0.10000    0.00000
   1.69706    0.10000    0.00000
   1.74420    0.10000    0.00000
   1.79134    0.10000    0.00000
   1.83848    0.10000    0.00000
   1.88562    0.10000    0.00000
   1.93276    0.10000    0.00000
   1.97990    0.10000    0.00000
   2.02704    0.10000    0.00000
   2.07418    0.10000    0.00000
   2.12132    0.10000    0.00000
   2.16846    0.10000    0.00000
   2.21560    0.10000    0.00000
   2.26274    0.10000    0.00000
   2.30988    0.10000    0.00000
   2.35702    0.10000    0.00000
   2.40416    0.10000    0.00000
   2.45130    0.10000    0.00000
   2.49844    0.10000    0.00000
   2.54558    0.10000    0.00000
   2.59272    0.10000    0.00000
   2.63987    0.10000    0.00000
   2.68701    0.10000    0.00000
   2.73415    0.10000    0.00000
   2.78129    0.10000    0.00000
   2.82843    0.10000    0.00000
  -2.82843    0.15000    0.00000
  -2.78129    0.15000    0.00000
  -2.73415    0.15000    0.00000
  -2.68701    0.15000    0.00000
  -2.63987    0.15000    0.00000
  -2.59272    0.15000    0.00000
  -2.54558    0.15000    0.00000
  -2.49844    0.15000    0.00000
  -2.45130    0.15000    0.00000
  -2.40416    0.15000    0.00000
  -2.35702    0.15000    0.00000
  -2.30988    0.15000    0.00000
  -2.26274    0.15000    0.00000
  -2.21560    0.15000    0.00000
  -2.16846    0.15000    0.00000
  -2.12132    0.15000    0.00000
  -2.07418    0.15000    0.00000
  -2.02704    0.15000    0.00000
  -1.97990    0.15000    0.00000
  -1.93276    0.15000    0.00000
  -1.88562    0.15000    0.00000
  -1.83848    0.15000    0.00000
  -1.79134    0.15000    0.00000
  -1.74420    0.15000    0.00000
  -1.69706    0.15000    0.00000
  -1.64992    0.15000    0.00000
  -1.60278    0.15000    0.00000
  -1.55563    0.15000    0.00000
  -1.50849    0.15000    0.00000
  -1.46135    0.15000    0.00000
  -1.41421    0.15000    0.00000
  -1.36707    0.15000    0.00000
  -1.31993    0.15000    0.00000
  -1.27279    0.15000    0.00000
  -1.22565    0.15000    0.00000
  -1.17851    0.15000    0.00000
  -1.13137    0.15000    0.00000
  -1.08423    0.15000    0.00000
  -1.03709    0.15000    0.00000
  -0.98995    0.15000    0.00000
  -0.94281    0.15000    0.00000
  -0.89567    0.15000    0.00000
  -0.84853    0.15000    0.00000
  -0.80139    0.15000    0.00000
  -0.75425    0.15000    0.40906
  -0.70711    0.15000    0.39456
  -0.65997    0.15000    0.38011
  -0.61283    0.15000    0.36548
  -0.56569    0.15000    0.35105
  -0.51854    0.15000    0.33675
  -0.47140    0.15000    0.32254
  -0.42426    0.15000    0.30842
  -0.37712    0.15000    0.29452
  -0.32998    0.15000    0.28090
  -0.28284    0.15000    0.26766
  -0.23570    0.15000    0.25496
  -0.18856    0.15000    0.24302
  -0.14142    0.15000    0.23220
  -0.09428    0.15000    0.22307
  -0.04714    0.15000    0.21653
   0.00000    0.15000    0.21389
   0.04714    0.15000    0.21653
   0.09428    0.15000    0.22307
   0.14142    0.15000    0.23220
   0.18856    0.15000    0.24302
   0.23570    0.15000    0.25496
   0.28284    0.15000    0.26766
   0.32998    0.15000    0.28090
   0.37712    0.15000    0.29452
   0.42426    0.15000    0.30842
   0.47140    0.15000    0.32254
   0.51854    0.15000    0.33675
   0.56569    0.15000    0.35105
   0.61283    0.15000    0.36548
   0.65997    0.15000    0.38011
   0.70711    0.15000    0.39456
   0.75425    0.15000    0.40906
   0.80139    0.15000    0.00000
   0.84853    0.15000    0.00000
   0.89567    0.15000    0.00000
   0.94281    0.15000    0.00000
   0.98995    0.15000    0.00000
   1.03709    0.15000    0.00000
   1.08423    0.15000    0.00000
   1.13137    0.15000    0.00000
   1.17851    0.15000    0.00000
   1.22565    0.15000    0.00000
   1.27279    0.15000    0.00000
   1.31993    0.15000    0.00000
   1.36707    0.15000    0.00000
   1.41421    0.15000    0.00000
   1.46135    0.15000    0.00000
   1.50849    0.15000    0.00000
   1.55563    0.15000    0.00000
   1.60278    0.15000    0.00000
   1.64992    0.15000    0.00000
   1.69706    0.15000    0.00000
   1.74420    0.15000    0.00000
   1.79134    0.15000    0.00000
   1.83848    0.15000    0.00000
   1.88562    0.15000    0.00000
   1.93276    0.15000    0.00000
   1.97990    0.15000    0.00000
   2.02704    0.15000    0.00000
   2.07418    0.15000    0.00000
   2.12132    0.15000    0.00000
   2.16846    0.15000    0.00000
   2.21560    0.15000    0.00000
   2.26274    0.15000    0.00000
   2.30988    0.15000    0.00000
   2.35702    0.15000    0.00000
   2.40416    0.15000    0.00000
   2.45130    0.15000    0.00000
   2.49844    0.15000    0.00000
   2.54558    0.15000    0.00000
   2.59272    0.15000    0.00000
   2.63987    0.15000    0.00000
   2.68701    0.15000    0.00000
   2.73415    0.15000    0.00000
   2.78129    0.15000    0.00000
   2.82843    0.15000    0.00000
  -2.82843    0.20000    0.00000
  -2.78129    0.20000    0.00000
  -2.73415    0.20000    0.00000
  -2.68701    0.20000    0.00000
  -2.63987    0.20000    0.00000
  -2.59272    0.20000    0.00000
  -2.54558    0.20000    0.00000
  -2.49844    0.20000    0.00000
  -2.45130    0.20000    0.00000
  -2.40416    0.20000    0.00000
  -2.35702    0.20000    0.00000
  -2.30988    0.20000    0.00000
  -2.26274    0.20000    0.00000
  -2.21560    0.20000    0.00000
  -2.16846    0.20000    0.00000
  -2.12132    0.20000    0.00000
  -2.07418    0.20000    0.00000
  -2.02704    0.20000    0.00000
  -1.97990    0.20000    0.00000
  -1.93276    0.20000    0.00000
  -1.88562    0.20000    0.00000
  -1.83848    0.20000    0.00000
  -1.79134    0.20000    0.00000
  -1.74420    0.20000    0.00000
  -1.69706    0.20000    0.00000
  -1.64992    0.20000    0.00000
  -1.60278    0.20000    0.00000
  -1.55563    0.20000    0.00000
  -1.50849    0.20000    0.00000
  -1.46135    0.20000    0.00000
  -1.41421    0.20000    0.00000
  -1.36707    0.20000    0.00000
  -1.31993    0.20000    0.00000
  -1.27279    0.20000    0.00000
  -1.22565    0.20000    0.00000
  -1.17851    0.20000    0.00000
  -1.13137    0.20000    0.00000
  -1.08423    0.20000    0.00000
  -1.03709    0.20000    0.00000
  -0.98995    0.20000    0.00000
  -0.94281    0.20000    0.00000
  -0.89567    0.20000    0.00000
  -0.84853    0.20000    0.47607
  -0.80139    0.20000    0.46194
  -0.75425    0.20000    0.44769
  -0.70711    0.20000    0.43367
  -0.65997    0.20000    0.41978
  -0.61283    0.20000    0.40597
  -0.56569    0.20000    0.39234
  -0.51854    0.20000    0.37888
  -0.47140    0.20000    0.36563
  -0.42426    0.20000    0.35262
  -0.37712    0.20000    0.33992
  -0.32998    0.20000    0.32765
  -0.28284    0.20000    0.31591
  -0.23570    0.20000    0.30489
  -0.18856    0.20000    0.29481
  -0.14142    0.20000    0.28601
  -0.09428    0.20000    0.27896
  -0.04714    0.20000    0.27424
   0.00000    0.20000    0.27253
   0.04714    0.20000    0.27424
   0.09428    0.20000    0.27896
   0.14142    0.20000    0.28601
   0.18856    0.20000    0.29481
   0.23570    0.20000    0.30489
   0.28284    0.20000    0.31591
   0.32998    0.20000    0.32765
   0.37712    0.20000    0.33992
   0.42426    0.20000    0.35262
   0.47140    0.20000    0.36563
   0.51854    0.20000    0.37888
   0.56569    0.20000    0.39234
   0.61283    0.20000    0.40597
   0.65997    0.20000    0.41978
   0.70711    0.20000    0.43367
   0.75425    0.20000    0.44769
   0.80139    0.20000    0.46194
   0.84853    0.20000    0.47607
   0.89567    0.20000    0.00000
   0.94281    0.20000    0.00000
   0.98995    0.20000    0.00000
   1.03709    0.20000    0.00000
   1.08423    0.20000    0.00000
   1.13137    0.20000    0.00000
   1.17851    0.20000    0.00000
   1.22565    0.20000    0.00000
   1.27279    0.20000    0.00000
   1.31993    0.20000    0.00000
   1.36707    0.20000    0.00000
   1.41421    0.20000    0.00000
   1.46135    0.20000    0.00000
   1.50849    0.20000    0.00000
   1.55563    0.20000    0.00000
   1.60278    0.20000    0.00000
   1.64992    0.20000    0.00000
   1.69706    0.20000    0.00000
   1.74420    0.20000    0.00000
   1.79134    0.20000    0.00000
   1.83848    0.20000    0.00000
   1.88562    0.20000    0.00000
   1.93276    0.20000    0.00000
   1.97990    0.20000    0.00000
   2.02704    0.20000    0.00000
   2.07418    0.20000    0.00000
   2.12132    0.20000    0.00000
   2.16846    0.20000    0.00000
   2.21560    0.20000    0.00000
   2.26274    0.20000    0.00000
   2.30988    0.20000    0.00000
   2.35702    0.20000    0.00000
   2.40416    0.20000    0.00000
   2.45130    0.20000    0.00000
   2.49844    0.20000    0.00000
   2.54558    0.20000    0.00000
   2.59272    0.20000    0.00000
   2.63987    0.20000    0.00000
   2.68701    0.20000    0.00000
   2.73415    0.20000    0.00000
   2.78129    0.20000    0.00000
   2.82843    0.20000    0.00000
  -2.82843    0.25000    0.00000
  -2.78129    0.25000    0.00000
  -2.73415    0.25000    0.00000
  -2.68701    0.25000    0.00000
  -2.63987    0.25000    0.00000
  -2.59272    0.25000    0.00000
  -2.54558    0.25000    0.00000
  -2.49844    0.25000    0.00000
  -2.45130    0.25000    0.00000
  -2.40416    0.25000    0.00000
  -2.35702    0.25000    0.00000
  -2.30988    0.25000    0.00000
  -2.26274    0.25000    0.00000
  -2.21560    0.25000    0.00000
  -2.16846    0.25000    0.00000
  -2.12132    0.25000    0.00000
  -2.07418    0.25000    0.00000
  -2.02704    0.25000    0.00000
  -1.97990    0.25000    0.00000
  -1.93276    0.25000    0.00000
  -1.88562    0.25000    0.00000
  -1.83848    0.25000    0.00000
  -1.79134    0.25000    0.00000
  -1.74420    0.25000    0.00000
  -1.69706    0.25000    0.00000
  -1.64992    0.25000    0.00000
  -1.60278    0.25000    0.00000
  -1.55563    0.25000    0.00000
  -1.50849    0.25000    0.00000
  -1.46135    0.25000    0.00000
  -1.41421    0.25000    0.00000
  -1.36707    0.25000    0.00000
  -1.31993    0.25000    0.00000
  -1.27279    0.25000    0.00000
  -1.22565    0.25000    0.00000
  -1.17851    0.25000    0.00000
  -1.13137    0.25000    0.00000
  -1.08423    0.25000    0.00000
  -1.03709    0.25000    0.00000
  -0.98995    0.25000    0.55600
  -0.94281    0.25000    0.54196
  -0.89567    0.25000    0.52806
  -0.84853    0.25000    0.51406
  -0.80139    0.25000    0.50031
  -0.75425    0.25000    0.48669
  -0.70711    0.25000    0.47325
  -0.65997    0.25000    0.45999
  -0.61283    0.25000    0.44691
  -0.56569    0.25000    0.43404
  -0.51854    0.25000    0.42142
  -0.47140    0.25000    0.40908
  -0.42426    0.25000    0.39708
  -0.37712    0.25000    0.38549
  -0.32998    0.25000    0.37442
  -0.28284    0.25000    0.36399
  -0.23570    0.25000    0.35437
  -0.18856    0.25000    0.34578
  -0.14142    0.25000    0.33849
  -0.09428    0.25000    0.33284
  -0.04714    0.25000    0.32921
   0.00000    0.25000    0.32794
   0.04714    0.25000    0.32921
   0.09428    0.25000    0.33284
   0.14142    0.25000    0.33849
   0.18856    0.25000    0.34578
   0.23570    0.25000    0.35437
   0.28284    0.25000    0.36399
   0.32998    0.25000    0.37442
   0.37712    0.25000    0.38549
   0.42426    0.25000    0.39708
   0.47140    0.25000    0.40908
   0.51854    0.25000    0.42142
   0.56569    0.25000    0.43404
   0.61283    0.25000    0.44691
   0.65997    0.25000    0.45999
   0.70711    0.25000    0.47325
   0.75425    0.25000    0.48669
   0.80139    0.25000    0.50031
   0.84853    0.25000    0.51406
   0.89567    0.25000    0.52806
   0.94281    0.25000    0.54196
   0.98995    0.25000    0.55600
   1.03709    0.25000    0.00000
   1.08423    0.25000    0.00000
   1.13137    0.25000    0.00000
   1.17851    0.25000    0.00000
   1.22565    0.25000    0.00000
   1.27279    0.25000    0.00000
   1.31993    0.25000    0.00000
   1.36707    0.25000    0.00000
   1.41421    0.25000    0.00000
   1.46135    0.25000    0.00000
   1.50849    0.25000    0.00000
   1.55563    0.25000    0.00000
   1.60278    0.25000    0.00000
   1.64992    0.25000    0.00000
   1.69706    0.25000    0.00000
   1.74420    0.25000    0.00000
   1.79134    0.25000    0.00000
   1.83848    0.25000    0.00000
   1.88562    0.25000    0.00000
   1.93276    0.25000    0.00000
   1.97990    0.25000    0.00000
   2.02704    0.25000    0.00000
   2.07418    0.25000    0.00000
   2.12132    0.25000    0.00000
   2.16846    0.25000    0.00000
   2.21560    0.25000    0.00000
   2.26274    0.25000    0.00000
   2.30988    0.25000    0.00000
   2.35702    0.25000    0.00000
   2.40416    0.25000    0.00000
   2.45130    0.25000    0.00000
   2.49844    0.25000    0.00000
   2.54558    0.25000    0.00000
   2.59272    0.25000    0.00000
   2.63987    0.25000    0.00000
   2.68701    0.25000    0.00000
   2.73415    0.25000    0.00000
   2.78129    0.25000    0.00000
   2.82843    0.25000    0.00000
  -2.82843    0.30000    0.00000
  -2.78129    0.30000    0.00000
  -2.73415    0.30000    0.00000
  -2.68701    0.30000    0.00000
  -2.63987    0.30000    0.00000
  -2.59272    0.30000    0.00000
  -2.54558    0.30000    0.00000
  -2.49844    0.30000    0.00000
  -2.45130    0.30000    0.00000
  -2.40416    0.30000    0.00000
  -2.35702    0.30000    0.00000
  -2.30988    0.30000    0.00000
  -2.26274    0.30000    0.00000
  -2.21560    0.30000    0.00000
  -2.16846    0.30000    0.00000
  -2.12132    0.30000    0.00000
  -2.07418    0.30000    0.00000
  -2.02704    0.30000    0.00000
  -1.97990    0.30000    0.00000
  -1.93276    0.30000    0.00000
  -1.88562    0.30000    0.00000
  -1.83848    0.30000    0.00000
  -1.79134    0.30000    0.00000
  -1.74420    0.30000    0.00000
  -1.69706    0.30000    0.00000
  -1.64992    0.30000    0.00000
  -1.60278    0.30000    0.00000
  -1.55563    0.30000    0.00000
  -1.50849    0.30000    0.00000
  -1.46135    0.30000    0.00000
  -1.41421    0.30000    0.00000
  -1.36707    0.30000    0.00000
  -1.31993    0.30000    0.00000
  -1.27279    0.30000    0.00000
  -1.22565    0.30000    0.00000
  -1.17851    0.30000    0.00000
  -1.13137    0.30000    0.00000
  -1.08423    0.30000    0.62114
  -1.03709    0.30000    0.60714
  -0.98995    0.30000    0.59313
  -0.94281    0.30000    0.57939
  -0.89567    0.30000    0.56584
  -0.84853    0.30000    0.55241
  -0.80139    0.30000    0.53917
  -0.75425    0.30000    0.52611
  -0.70711    0.30000    0.51326
  -0.65997    0.30000    0.50062
  -0.61283    0.30000    0.48822
  -0.56569    0.30000    0.47609
  -0.51854    0.30000    0.46426
  -0.47140    0.30000    0.45277
  -0.42426    0.30000    0.44169
  -0.37712    0.30000    0.43110
  -0.32998    0.30000    0.42109
  -0.28284    0.30000    0.41178
  -0.23570    0.30000    0.40332
  -0.18856    0.30000    0.39590
  -0.14142    0.30000    0.38974
  -0.09428    0.30000    0.38507
  -0.04714    0.30000    0.38214
   0.00000    0.30000    0.38113
   0.04714    0.30000    0.38214
   0.09428    0.30000    0.38507
   0.14142    0.30000    0.38974
   0.18856    0.30000    0.39590
   0.23570    0.30000    0.40332
   0.28284    0.30000    0.41178
   0.32998    0.30000    0.42109
   0.37712    0.30000    0.43110
   0.42426    0.30000    0.44169
   0.47140    0.30000    0.45277
   0.51854    0.30000    0.46426
   0.56569    0.30000    0.47609
   0.61283    0.30000    0.48822
   0.65997    0.30000    0.50062
   0.70711    0.30000    0.51326
   0.75425    0.30000    0.52611
   0.80139    0.30000    0.53917
   0.84853    0.30000    0.55241
   0.89567    0.30000    0.56584
   0.94281    0.30000    0.57939
   0.98995    0.30000    0.59313
   1.03709    0.30000    0.60714
   1.08423    0.30000    0.62114
   1.13137    0.30000    0.00000
   1.17851    0.30000    0.00000
   1.22565    0.30000    0.00000
   1.27279    0.30000    0.00000
   1.31993    0.30000    0.00000
   1.36707    0.30000    0.00000
   1.41421    0.30000    0.00000
   1.46135    0.30000    0.00000
   1.50849    0.30000    0.00000
   1.55563    0.30000    0.00000
   1.60278    0.30000    0.00000
   1.64992    0.30000    0.00000
   1.69706    0.30000    0.00000
   1.74420    0.30000    0.00000
   1.79134    0.30000    0.00000
   1.83848    0.30000    0.00000
   1.88562    0.30000    0.00000
   1.93276    0.30000    0.00000
   1.97990    0.30000    0.00000
   2.02704    0.30000    0.00000
   2.07418    0.30000    0.00000
   2.12132    0.30000    0.00000
   2.16846    0.30000    0.00000
   2.21560    0.30000    0.00000
   2.26274    0.30000    0.00000
   2.30988    0.30000    0.00000
   2.35702    0.30000    0.00000
   2.40416    0.30000    0.00000
   2.45130    0.30000    0.00000
   2.49844    0.30000    0.00000
   2.54558    0.30000    0.00000
   2.59272    0.30000    0.00000
   2.63987    0.30000    0.00000
   2.68701    0.30000    0.00000
   2.73415    0.30000    0.00000
   2.78129    0.30000    0.00000
   2.82843    0.30000    0.00000
  -2.82843    0.35000    0.00000
  -2.78129    0.35000    0.00000
  -2.73415    0.35000    0.00000
  -2.68701    0.35000    0.00000
  -2.63987    0.35000    0.00000
  -2.59272    0.35000    0.00000
  -2.54558    0.35000    0.00000
  -2.49844    0.35000    0.00000
  -2.45130    0.35000    0.00000
  -2.40416    0.35000    0.00000
  -2.35702    0.35000    0.00000
  -2.30988    0.35000    0.00000
  -2.26274    0.35000    0.00000
  -2.21560    0.35000    0.00000
  -2.16846    0.35000    0.00000
  -2.12132    0.35000    0.00000
  -2.07418    0.35000    0.00000
  -2.02704    0.35000    0.00000
  -1.97990    0.35000    0.00000
  -1.93276    0.35000    0.00000
  -1.88562    0.35000    0.00000
  -1.83848    0.35000    0.00000
  -1.79134    0.35000    0.00000
  -1.74420    0.35000    0.00000
  -1.69706    0.35000    0.00000
  -1.64992    0.35000    0.00000
  -1.60278    0.35000    0.00000
  -1.55563    0.35000    0.00000
  -1.50849    0.35000    0.00000
  -1.46135    0.35000    0.00000
  -1.41421    0.35000    0.00000
  -1.36707    0.35000    0.00000
  -1.31993    0.35000    0.00000
  -1.27279    0.35000    0.00000
  -1.22565    0.35000    0.00000
  -1.17851    0.35000    0.68597
  -1.13137    0.35000    0.67190
  -1.08423    0.35000    0.65787
  -1.03709    0.35000    0.64413
  -0.98995    0.35000    0.63058
  -0.94281    0.35000    0.61724
  -0.89567    0.35000    0.60411
  -0.84853    0.35000    0.59117
  -0.80139    0.35000    0.57844
  -0.75425    0.35000    0.56592
  -0.70711    0.35000    0.55364
  -0.65997    0.35000    0.54162
  -0.61283    0.35000    0.52987
  -0.56569    0.35000    0.51843
  -0.51854    0.35000    0.50733
  -0.47140    0.35000    0.49663
  -0.42426    0.35000    0.48639
  -0.37712    0.35000    0.47668
  -0.32998    0.35000    0.46759
  -0.28284    0.35000    0.45923
  -0.23570    0.35000    0.45174
  -0.18856    0.35000    0.44525
  -0.14142    0.35000    0.43994
  -0.09428    0.35000    0.43598
  -0.04714    0.35000    0.43352